LAMMPS data file via write_data, version 29 Sep 2021, timestep = 0

23590 atoms
1 atom types

0 359.78 xlo xhi
0 28.85 ylo yhi
-1 99 zlo zhi

Masses

1 196.67

Atoms # molecular

17380 0 1 0 23.07996533792891 0 0 0 0
17379 0 1 0 25.96496100517002 0 0 0 0
17378 0 1 0 17.309974003446683 0 0 0 0
17377 0 1 0 20.194969670687797 0 0 0 0
17376 0 1 0 11.539982668964456 0 0 0 0
17375 0 1 0 14.424978336205568 0 0 0 0
17374 0 1 0 5.769991334482228 0 0 0 0
17373 0 1 0 8.654987001723342 0 0 0 0
17372 0 1 0 0 0 0 0 0
8630 0 1 78.28569217935039 0 2.3555890982936702 0 0 0
17371 0 1 0 2.884995667241114 0 0 0 0
17370 0 1 80.78417171698923 27.407458838790582 2.355589098293682 0 0 0
17369 0 1 74.95438612916527 25.964961005170025 8.881784197001252e-16 0 0 0
17368 0 1 77.45286566680412 27.407458838790582 4.440892098500626e-15 0 0 0
17367 0 1 72.45590659152643 27.407458838790582 -8.881784197001252e-16 0 0 0
17366 0 1 72.45590659152643 24.522463171549468 -2.6645352591003757e-15 0 0 0
17365 0 1 86.61395730481318 23.07996533792891 4.711178196587346 0 0 0
17364 0 1 89.11243684245203 27.407458838790575 4.711178196587346 0 0 0
17363 0 1 86.61395730481318 25.964961005170025 4.711178196587346 0 0 0
8640 0 1 81.61699822953551 0 4.711178196587348 0 0 0
8641 0 1 84.11547776717435 1.442497833620557 4.711178196587351 0 0 0
17362 0 1 89.11243684245203 24.522463171549468 4.711178196587349 0 0 0
17361 0 1 88.27961032990574 25.964961005170018 2.355589098293672 0 0 0
17360 0 1 83.28265125462806 23.07996533792891 2.3555890982936756 0 0 0
17359 0 1 85.78113079226691 27.407458838790575 2.3555890982936756 0 0 0
17358 0 1 83.28265125462806 25.964961005170025 2.3555890982936756 0 0 0
17357 0 1 85.78113079226691 24.522463171549468 2.355589098293679 0 0 0
8648 0 1 84.94830427972063 0 7.066767294881018 0 0 0
8649 0 1 87.44678381735947 1.442497833620557 7.066767294881021 0 0 0
8650 0 1 88.27961032990575 0 9.422356393174688 0 0 0
8651 0 1 64.96046797860988 0 0 0 0 0
8652 0 1 67.45894751624873 1.4424978336205605 -3.552713678800501e-15 0 0 0
17356 0 1 84.94830427972062 25.964961005170018 1.7763568394002505e-15 0 0 0
8654 0 1 69.95742705388757 2.8849956672411174 3.552713678800501e-15 0 0 0
17355 0 1 87.44678381735946 27.407458838790575 5.329070518200751e-15 0 0 0
8656 0 1 69.95742705388757 0 0 0 0 0
8657 0 1 68.29177402879502 0 2.3555890982936774 0 0 0
8658 0 1 70.79025356643386 1.4424978336205605 2.3555890982936702 0 0 0
17354 0 1 80.78417171698923 24.522463171549468 2.355589098293679 0 0 0
17353 0 1 80.78417171698922 21.637467504308354 2.355589098293679 0 0 0
17352 0 1 79.95134520444294 23.07996533792891 -1.7763568394002505e-15 0 0 0
17351 0 1 82.44982474208179 27.407458838790575 5.329070518200751e-15 0 0 0
8663 0 1 75.78721264171155 1.442497833620557 2.355589098293674 0 0 0
8664 0 1 73.2887331040727 2.8849956672411174 2.355589098293674 0 0 0
8665 0 1 75.78721264171155 4.327493500861674 2.3555890982936774 0 0 0
8666 0 1 73.2887331040727 0 2.3555890982936702 0 0 0
8667 0 1 71.62308007898014 0 4.711178196587348 0 0 0
8668 0 1 74.12155961661898 1.4424978336205605 4.711178196587348 0 0 0
17350 0 1 79.95134520444294 25.964961005170025 -1.7763568394002505e-15 0 0 0
17349 0 1 82.44982474208179 24.522463171549468 8.881784197001252e-15 0 0 0
17348 0 1 74.95438612916526 20.194969670687797 1.7763568394002505e-15 0 0 0
17347 0 1 77.4528656668041 24.522463171549468 1.7763568394002505e-15 0 0 0
17346 0 1 74.95438612916526 23.07996533792891 -1.7763568394002505e-15 0 0 0
8674 0 1 78.28569217935039 5.769991334482228 2.3555890982936702 0 0 0
17345 0 1 77.4528656668041 21.637467504308354 1.7763568394002505e-15 0 0 0
8676 0 1 78.28569217935038 2.884995667241114 2.3555890982936702 0 0 0
8677 0 1 79.11851869189667 1.442497833620557 4.711178196587351 0 0 0
8678 0 1 76.62003915425782 2.8849956672411174 4.711178196587344 0 0 0
8679 0 1 79.11851869189667 4.327493500861674 4.711178196587355 0 0 0
8680 0 1 76.62003915425782 0 4.7111781965873405 0 0 0
8681 0 1 74.95438612916526 0 7.066767294881018 0 0 0
8682 0 1 77.45286566680412 1.4424978336205605 7.066767294881025 0 0 0
17344 0 1 72.45590659152641 21.637467504308354 -1.7763568394002505e-15 0 0 0
17343 0 1 72.45590659152641 18.75247183706724 -1.7763568394002505e-15 0 0 0
17342 0 1 86.61395730481318 17.309974003446683 4.711178196587346 0 0 0
17341 0 1 89.11243684245204 21.637467504308354 4.711178196587348 0 0 0
17340 0 1 86.6139573048132 20.194969670687797 4.711178196587344 0 0 0
17339 0 1 89.11243684245203 18.75247183706724 4.711178196587346 0 0 0
17338 0 1 88.27961032990575 20.194969670687797 2.355589098293672 0 0 0
17337 0 1 88.27961032990575 23.07996533792891 2.355589098293674 0 0 0
8691 0 1 84.11547776717435 4.327493500861667 4.711178196587348 0 0 0
8692 0 1 81.61699822953551 5.769991334482228 4.711178196587348 0 0 0
8693 0 1 84.11547776717435 7.212489168102785 4.711178196587351 0 0 0
8694 0 1 81.6169982295355 2.884995667241114 4.711178196587348 0 0 0
8695 0 1 82.44982474208179 1.442497833620557 7.066767294881021 0 0 0
8696 0 1 79.95134520444294 2.8849956672411174 7.066767294881021 0 0 0
8697 0 1 82.44982474208179 4.327493500861674 7.066767294881025 0 0 0
8698 0 1 79.95134520444294 0 7.066767294881018 0 0 0
8699 0 1 78.28569217935038 0 9.422356393174695 0 0 0
8700 0 1 80.78417171698923 1.4424978336205605 9.422356393174695 0 0 0
17336 0 1 83.28265125462806 17.309974003446683 2.3555890982936756 0 0 0
17335 0 1 85.78113079226692 21.637467504308354 2.3555890982936774 0 0 0
17334 0 1 83.28265125462806 20.194969670687797 2.355589098293674 0 0 0
17333 0 1 85.78113079226692 18.75247183706724 2.3555890982936756 0 0 0
17332 0 1 84.94830427972063 20.194969670687797 1.7763568394002505e-15 0 0 0
17331 0 1 87.44678381735947 24.52246317154946 3.552713678800501e-15 0 0 0
8707 0 1 87.44678381735947 4.327493500861667 7.066767294881018 0 0 0
8708 0 1 84.94830427972063 5.769991334482228 7.066767294881018 0 0 0
8709 0 1 87.44678381735947 7.212489168102785 7.066767294881021 0 0 0
8710 0 1 84.94830427972062 2.884995667241114 7.066767294881018 0 0 0
8711 0 1 85.78113079226691 1.442497833620557 9.422356393174692 0 0 0
8712 0 1 83.28265125462806 2.8849956672411174 9.422356393174692 0 0 0
8713 0 1 85.78113079226691 4.327493500861674 9.422356393174695 0 0 0
8714 0 1 83.28265125462806 0 9.422356393174688 0 0 0
8715 0 1 81.6169982295355 0 11.777945491468365 0 0 0
8716 0 1 84.11547776717435 1.4424978336205605 11.777945491468365 0 0 0
8717 0 1 88.27961032990575 5.769991334482228 9.422356393174688 0 0 0
8718 0 1 88.27961032990574 2.884995667241114 9.422356393174688 0 0 0
8719 0 1 89.11243684245204 1.442497833620557 11.777945491468362 0 0 0
8720 0 1 86.61395730481318 2.8849956672411174 11.777945491468362 0 0 0
8721 0 1 89.11243684245204 4.327493500861674 11.777945491468365 0 0 0
8722 0 1 86.61395730481318 0 11.777945491468358 0 0 0
8723 0 1 54.96654982805453 0 0 0 0 0
8724 0 1 57.46502936569337 1.442497833620557 1.7763568394002505e-15 0 0 0
8725 0 1 62.46198844097105 1.4424978336205534 -1.7763568394002505e-15 0 0 0
8726 0 1 59.96350890333221 2.8849956672411103 0 0 0 0
8727 0 1 62.46198844097105 4.327493500861671 -3.552713678800501e-15 0 0 0
8728 0 1 59.963508903332205 0 0 0 0 0
8729 0 1 58.29785587823965 0 2.355589098293674 0 0 0
8730 0 1 60.79633541587849 1.442497833620557 2.355589098293672 0 0 0
8731 0 1 67.45894751624873 4.327493500861671 -1.7763568394002505e-15 0 0 0
8732 0 1 64.96046797860988 5.769991334482228 0 0 0 0
8733 0 1 67.45894751624873 7.212489168102785 0 0 0 0
8734 0 1 64.9604679786099 2.884995667241114 -1.7763568394002505e-15 0 0 0
8735 0 1 65.79329449115617 1.4424978336205534 2.355589098293672 0 0 0
8736 0 1 63.29481495351733 2.8849956672411103 2.355589098293674 0 0 0
8737 0 1 65.79329449115616 4.327493500861671 2.3555890982936702 0 0 0
8738 0 1 63.294814953517324 0 2.355589098293672 0 0 0
8739 0 1 61.62916192842477 0 4.711178196587348 0 0 0
8740 0 1 64.12764146606361 1.442497833620557 4.711178196587348 0 0 0
17330 0 1 84.94830427972063 23.07996533792891 3.552713678800501e-15 0 0 0
8742 0 1 69.95742705388757 8.654987001723338 3.552713678800501e-15 0 0 0
17329 0 1 87.44678381735947 21.637467504308354 5.329070518200751e-15 0 0 0
8744 0 1 69.95742705388759 5.769991334482228 5.329070518200751e-15 0 0 0
8745 0 1 70.79025356643386 4.327493500861671 2.355589098293672 0 0 0
8746 0 1 68.29177402879502 5.769991334482228 2.3555890982936774 0 0 0
8747 0 1 70.79025356643386 7.212489168102785 2.355589098293674 0 0 0
8748 0 1 68.29177402879502 2.884995667241114 2.3555890982936756 0 0 0
8749 0 1 69.1246005413413 1.4424978336205534 4.711178196587346 0 0 0
8750 0 1 66.62612100370245 2.8849956672411103 4.711178196587351 0 0 0
8751 0 1 69.1246005413413 4.327493500861671 4.711178196587344 0 0 0
8752 0 1 66.62612100370245 0 4.711178196587349 0 0 0
8753 0 1 64.9604679786099 0 7.066767294881025 0 0 0
8754 0 1 67.45894751624873 1.442497833620557 7.066767294881018 0 0 0
17328 0 1 80.78417171698923 18.75247183706724 2.355589098293681 0 0 0
17327 0 1 80.78417171698923 15.867476169826128 2.355589098293679 0 0 0
17326 0 1 79.95134520444294 17.309974003446683 -1.7763568394002505e-15 0 0 0
17325 0 1 82.4498247420818 21.637467504308354 7.105427357601002e-15 0 0 0
8759 0 1 75.78721264171155 7.212489168102781 2.3555890982936756 0 0 0
8760 0 1 73.2887331040727 8.654987001723338 2.355589098293674 0 0 0
8761 0 1 75.78721264171153 10.097484835343895 2.3555890982936774 0 0 0
8762 0 1 73.2887331040727 5.769991334482228 2.3555890982936756 0 0 0
8763 0 1 74.121559616619 4.327493500861671 4.711178196587349 0 0 0
8764 0 1 71.62308007898014 5.769991334482228 4.711178196587348 0 0 0
8765 0 1 74.12155961661898 7.212489168102785 4.711178196587351 0 0 0
8766 0 1 71.62308007898015 2.884995667241114 4.711178196587346 0 0 0
8767 0 1 72.45590659152643 1.4424978336205534 7.066767294881023 0 0 0
8768 0 1 69.95742705388759 2.8849956672411103 7.066767294881021 0 0 0
8769 0 1 72.45590659152641 4.327493500861671 7.066767294881021 0 0 0
8770 0 1 69.95742705388759 0 7.06676729488102 0 0 0
8771 0 1 68.29177402879502 0 9.422356393174695 0 0 0
8772 0 1 70.79025356643386 1.442497833620557 9.422356393174695 0 0 0
17324 0 1 79.95134520444296 20.194969670687797 -3.552713678800501e-15 0 0 0
17323 0 1 82.44982474208179 18.75247183706724 5.329070518200751e-15 0 0 0
17322 0 1 74.95438612916526 14.424978336205568 1.7763568394002505e-15 0 0 0
17321 0 1 77.45286566680412 18.75247183706724 3.552713678800501e-15 0 0 0
17320 0 1 74.95438612916527 17.309974003446683 0 0 0 0
8778 0 1 78.28569217935038 11.539982668964452 2.355589098293674 0 0 0
17319 0 1 77.4528656668041 15.867476169826128 1.7763568394002505e-15 0 0 0
8780 0 1 78.28569217935039 8.654987001723338 2.355589098293672 0 0 0
8781 0 1 79.11851869189668 7.212489168102781 4.711178196587353 0 0 0
8782 0 1 76.62003915425782 8.654987001723338 4.711178196587344 0 0 0
8783 0 1 79.11851869189667 10.097484835343895 4.711178196587355 0 0 0
8784 0 1 76.62003915425782 5.769991334482228 4.711178196587346 0 0 0
8785 0 1 77.45286566680412 4.327493500861671 7.066767294881027 0 0 0
8786 0 1 74.95438612916526 5.769991334482228 7.066767294881018 0 0 0
8787 0 1 77.4528656668041 7.212489168102785 7.0667672948810285 0 0 0
8788 0 1 74.95438612916527 2.884995667241114 7.066767294881016 0 0 0
8789 0 1 75.78721264171155 1.4424978336205534 9.4223563931747 0 0 0
8790 0 1 73.28873310407269 2.8849956672411103 9.422356393174692 0 0 0
8791 0 1 75.78721264171155 4.327493500861671 9.422356393174699 0 0 0
8792 0 1 73.2887331040727 0 9.42235639317469 0 0 0
8793 0 1 71.62308007898014 0 11.777945491468365 0 0 0
8794 0 1 74.12155961661898 1.442497833620557 11.777945491468373 0 0 0
17318 0 1 72.45590659152643 15.867476169826125 0 0 0 0
17317 0 1 72.45590659152641 12.98248050258501 1.7763568394002505e-15 0 0 0
17316 0 1 86.6139573048132 11.539982668964452 4.711178196587346 0 0 0
17315 0 1 89.11243684245203 15.867476169826126 4.711178196587348 0 0 0
17314 0 1 86.61395730481318 14.42497833620557 4.711178196587344 0 0 0
17313 0 1 89.11243684245204 12.982480502585013 4.711178196587346 0 0 0
17312 0 1 88.27961032990575 14.42497833620557 2.355589098293672 0 0 0
17311 0 1 88.27961032990575 17.309974003446683 2.3555890982936702 0 0 0
8803 0 1 84.11547776717435 10.097484835343895 4.711178196587353 0 0 0
8804 0 1 81.6169982295355 11.539982668964452 4.711178196587351 0 0 0
8805 0 1 84.11547776717435 12.982480502585009 4.711178196587351 0 0 0
8806 0 1 81.61699822953551 8.654987001723338 4.711178196587349 0 0 0
8807 0 1 82.4498247420818 7.212489168102781 7.066767294881023 0 0 0
8808 0 1 79.95134520444294 8.654987001723338 7.066767294881021 0 0 0
8809 0 1 82.44982474208179 10.097484835343895 7.066767294881025 0 0 0
8810 0 1 79.95134520444294 5.769991334482228 7.066767294881023 0 0 0
8811 0 1 80.78417171698923 4.327493500861671 9.422356393174697 0 0 0
8812 0 1 78.28569217935038 5.769991334482228 9.422356393174695 0 0 0
8813 0 1 80.78417171698922 7.212489168102785 9.422356393174699 0 0 0
8814 0 1 78.28569217935039 2.884995667241114 9.422356393174693 0 0 0
8815 0 1 79.11851869189667 1.4424978336205534 11.77794549146837 0 0 0
8816 0 1 76.62003915425781 2.8849956672411103 11.777945491468369 0 0 0
8817 0 1 79.11851869189667 4.327493500861671 11.777945491468369 0 0 0
8818 0 1 76.62003915425782 0 11.777945491468367 0 0 0
17310 0 1 83.28265125462806 11.539982668964452 2.3555890982936756 0 0 0
17309 0 1 85.78113079226691 15.867476169826126 2.3555890982936774 0 0 0
17308 0 1 83.28265125462806 14.42497833620557 2.355589098293674 0 0 0
17307 0 1 85.78113079226692 12.982480502585013 2.3555890982936756 0 0 0
17306 0 1 84.94830427972063 14.42497833620557 1.7763568394002505e-15 0 0 0
17305 0 1 87.44678381735947 18.75247183706724 3.552713678800501e-15 0 0 0
8825 0 1 87.44678381735947 10.097484835343895 7.066767294881023 0 0 0
8826 0 1 84.94830427972062 11.539982668964452 7.066767294881021 0 0 0
8827 0 1 87.44678381735946 12.982480502585009 7.066767294881021 0 0 0
8828 0 1 84.94830427972063 8.654987001723338 7.06676729488102 0 0 0
8829 0 1 85.78113079226692 7.212489168102781 9.422356393174693 0 0 0
8830 0 1 83.28265125462806 8.654987001723338 9.422356393174692 0 0 0
8831 0 1 85.78113079226691 10.097484835343895 9.422356393174695 0 0 0
8832 0 1 83.28265125462806 5.769991334482228 9.422356393174693 0 0 0
8833 0 1 84.11547776717435 4.327493500861671 11.777945491468367 0 0 0
8834 0 1 81.6169982295355 5.769991334482228 11.777945491468365 0 0 0
8835 0 1 84.11547776717434 7.212489168102785 11.777945491468369 0 0 0
8836 0 1 81.61699822953551 2.884995667241114 11.777945491468364 0 0 0
8837 0 1 88.27961032990574 11.539982668964452 9.422356393174692 0 0 0
8838 0 1 88.27961032990575 8.654987001723338 9.42235639317469 0 0 0
8839 0 1 89.11243684245204 7.212489168102781 11.777945491468364 0 0 0
8840 0 1 86.61395730481318 8.654987001723338 11.777945491468362 0 0 0
8841 0 1 89.11243684245203 10.097484835343895 11.777945491468365 0 0 0
8842 0 1 86.61395730481318 5.769991334482228 11.777945491468364 0 0 0
8843 0 1 44.97263167749915 0 0 0 0 0
8844 0 1 47.47111121513799 1.442497833620557 -1.7763568394002505e-15 0 0 0
8845 0 1 52.46807029041569 1.4424978336205587 1.7763568394002505e-15 0 0 0
8846 0 1 49.96959075277684 2.8849956672411157 0 0 0 0
8847 0 1 52.46807029041568 4.327493500861673 1.7763568394002505e-15 0 0 0
8848 0 1 49.96959075277684 0 0 0 0 0
8849 0 1 48.30393772768427 0 2.355589098293674 0 0 0
8850 0 1 50.80241726532312 1.442497833620557 2.3555890982936756 0 0 0
8851 0 1 57.46502936569337 4.327493500861669 1.7763568394002505e-15 0 0 0
8852 0 1 54.966549828054525 5.769991334482226 0 0 0 0
8853 0 1 57.46502936569336 7.2124891681027865 0 0 0 0
8854 0 1 54.966549828054525 2.8849956672411157 0 0 0 0
8855 0 1 55.79937634060081 1.4424978336205587 2.3555890982936756 0 0 0
8856 0 1 53.300896802961965 2.8849956672411157 2.355589098293674 0 0 0
8857 0 1 55.7993763406008 4.327493500861673 2.3555890982936756 0 0 0
8858 0 1 53.300896802961965 0 2.355589098293674 0 0 0
8859 0 1 51.6352437778694 0 4.711178196587348 0 0 0
8860 0 1 54.13372331550824 1.442497833620557 4.711178196587349 0 0 0
8861 0 1 62.46198844097105 7.2124891681027865 -1.7763568394002505e-15 0 0 0
8862 0 1 59.963508903332205 8.654987001723343 0 0 0 0
8863 0 1 62.46198844097105 10.0974848353439 0 0 0 0
8864 0 1 59.96350890333221 5.76999133448223 -1.7763568394002505e-15 0 0 0
8865 0 1 60.79633541587849 4.327493500861669 2.355589098293672 0 0 0
8866 0 1 58.297855878239645 5.769991334482226 2.355589098293674 0 0 0
8867 0 1 60.79633541587848 7.2124891681027865 2.3555890982936702 0 0 0
8868 0 1 58.297855878239645 2.8849956672411157 2.355589098293674 0 0 0
8869 0 1 59.13068239078593 1.4424978336205587 4.711178196587346 0 0 0
8870 0 1 56.632202853147085 2.8849956672411157 4.711178196587348 0 0 0
8871 0 1 59.13068239078592 4.327493500861673 4.711178196587346 0 0 0
8872 0 1 56.632202853147085 0 4.711178196587346 0 0 0
8873 0 1 54.96654982805452 0 7.066767294881021 0 0 0
8874 0 1 57.46502936569336 1.442497833620557 7.066767294881021 0 0 0
8875 0 1 67.45894751624873 10.097484835343897 -1.7763568394002505e-15 0 0 0
8876 0 1 64.96046797860988 11.539982668964454 0 0 0 0
8877 0 1 67.45894751624873 12.98248050258501 0 0 0 0
8878 0 1 64.9604679786099 8.654987001723343 1.7763568394002505e-15 0 0 0
8879 0 1 65.79329449115616 7.2124891681027865 2.355589098293672 0 0 0
8880 0 1 63.294814953517324 8.654987001723343 2.355589098293674 0 0 0
8881 0 1 65.79329449115617 10.0974848353439 2.355589098293674 0 0 0
8882 0 1 63.29481495351733 5.76999133448223 2.355589098293672 0 0 0
8883 0 1 64.12764146606361 4.327493500861669 4.711178196587346 0 0 0
8884 0 1 61.629161928424764 5.769991334482226 4.711178196587348 0 0 0
8885 0 1 64.12764146606361 7.2124891681027865 4.711178196587344 0 0 0
8886 0 1 61.629161928424764 2.8849956672411157 4.711178196587346 0 0 0
8887 0 1 62.46198844097105 1.4424978336205587 7.06676729488102 0 0 0
8888 0 1 59.963508903332205 2.8849956672411157 7.066767294881021 0 0 0
8889 0 1 62.46198844097104 4.327493500861673 7.066767294881021 0 0 0
8890 0 1 59.963508903332205 0 7.066767294881023 0 0 0
8891 0 1 58.29785587823964 0 9.422356393174695 0 0 0
8892 0 1 60.79633541587848 1.442497833620557 9.422356393174692 0 0 0
17304 0 1 84.94830427972062 17.309974003446683 0 0 0 0
8894 0 1 69.95742705388757 14.424978336205568 7.105427357601002e-15 0 0 0
17303 0 1 87.44678381735949 15.867476169826126 1.7763568394002505e-15 0 0 0
8896 0 1 69.95742705388759 11.539982668964454 5.329070518200751e-15 0 0 0
8897 0 1 70.79025356643385 10.097484835343897 2.355589098293672 0 0 0
8898 0 1 68.29177402879502 11.539982668964454 2.3555890982936774 0 0 0
8899 0 1 70.79025356643386 12.98248050258501 2.355589098293674 0 0 0
8900 0 1 68.29177402879502 8.654987001723343 2.355589098293679 0 0 0
8901 0 1 69.1246005413413 7.2124891681027865 4.711178196587346 0 0 0
8902 0 1 66.62612100370245 8.654987001723343 4.711178196587351 0 0 0
8903 0 1 69.1246005413413 10.0974848353439 4.711178196587348 0 0 0
8904 0 1 66.62612100370245 5.76999133448223 4.711178196587349 0 0 0
8905 0 1 67.45894751624874 4.327493500861669 7.06676729488102 0 0 0
8906 0 1 64.9604679786099 5.769991334482226 7.066767294881025 0 0 0
8907 0 1 67.45894751624874 7.2124891681027865 7.066767294881018 0 0 0
8908 0 1 64.9604679786099 2.8849956672411157 7.066767294881023 0 0 0
8909 0 1 65.79329449115617 1.4424978336205587 9.422356393174693 0 0 0
8910 0 1 63.29481495351733 2.8849956672411157 9.422356393174699 0 0 0
8911 0 1 65.79329449115617 4.327493500861673 9.422356393174692 0 0 0
8912 0 1 63.29481495351733 0 9.4223563931747 0 0 0
8913 0 1 61.629161928424764 0 11.777945491468373 0 0 0
8914 0 1 64.12764146606361 1.442497833620557 11.777945491468369 0 0 0
17302 0 1 80.78417171698922 12.982480502585009 2.355589098293681 0 0 0
17301 0 1 80.78417171698923 10.097484835343895 2.3555890982936827 0 0 0
17300 0 1 79.95134520444296 11.539982668964452 -1.7763568394002505e-15 0 0 0
17299 0 1 82.44982474208179 15.867476169826126 7.105427357601002e-15 0 0 0
8919 0 1 75.78721264171155 12.98248050258501 2.355589098293679 0 0 0
8920 0 1 73.2887331040727 14.424978336205568 2.3555890982936774 0 0 0
8921 0 1 75.78721264171155 15.867476169826125 2.3555890982936774 0 0 0
8922 0 1 73.2887331040727 11.539982668964454 2.3555890982936756 0 0 0
8923 0 1 74.12155961661898 10.097484835343897 4.711178196587349 0 0 0
8924 0 1 71.62308007898015 11.539982668964454 4.711178196587348 0 0 0
8925 0 1 74.12155961661898 12.98248050258501 4.711178196587351 0 0 0
8926 0 1 71.62308007898014 8.654987001723343 4.711178196587349 0 0 0
8927 0 1 72.45590659152643 7.2124891681027865 7.066767294881023 0 0 0
8928 0 1 69.95742705388759 8.654987001723343 7.066767294881021 0 0 0
8929 0 1 72.45590659152643 10.0974848353439 7.066767294881025 0 0 0
8930 0 1 69.95742705388759 5.76999133448223 7.06676729488102 0 0 0
8931 0 1 70.79025356643386 4.327493500861669 9.422356393174697 0 0 0
8932 0 1 68.29177402879502 5.769991334482226 9.422356393174695 0 0 0
8933 0 1 70.79025356643386 7.2124891681027865 9.422356393174695 0 0 0
8934 0 1 68.29177402879502 2.8849956672411157 9.422356393174693 0 0 0
8935 0 1 69.1246005413413 1.4424978336205587 11.77794549146837 0 0 0
8936 0 1 66.62612100370247 2.8849956672411157 11.777945491468369 0 0 0
8937 0 1 69.1246005413413 4.327493500861673 11.777945491468369 0 0 0
8938 0 1 66.62612100370245 0 11.77794549146837 0 0 0
17298 0 1 79.95134520444294 14.42497833620557 -3.552713678800501e-15 0 0 0
17297 0 1 82.4498247420818 12.982480502585013 5.329070518200751e-15 0 0 0
17296 0 1 74.95438612916527 8.654987001723338 1.7763568394002505e-15 0 0 0
17295 0 1 77.4528656668041 12.982480502585009 3.552713678800501e-15 0 0 0
17294 0 1 74.95438612916526 11.539982668964452 3.552713678800501e-15 0 0 0
8944 0 1 78.28569217935039 17.309974003446683 2.3555890982936702 0 0 0
17293 0 1 77.45286566680412 10.097484835343895 5.329070518200751e-15 0 0 0
8946 0 1 78.28569217935039 14.424978336205568 2.355589098293672 0 0 0
8947 0 1 79.11851869189667 12.98248050258501 4.7111781965873565 0 0 0
8948 0 1 76.62003915425782 14.424978336205568 4.711178196587348 0 0 0
8949 0 1 79.11851869189667 15.867476169826125 4.711178196587355 0 0 0
8950 0 1 76.62003915425782 11.539982668964454 4.711178196587346 0 0 0
8951 0 1 77.45286566680412 10.097484835343897 7.066767294881027 0 0 0
8952 0 1 74.95438612916527 11.539982668964454 7.066767294881018 0 0 0
8953 0 1 77.45286566680412 12.98248050258501 7.0667672948810285 0 0 0
8954 0 1 74.95438612916526 8.654987001723343 7.06676729488102 0 0 0
8955 0 1 75.78721264171155 7.2124891681027865 9.4223563931747 0 0 0
8956 0 1 73.2887331040727 8.654987001723343 9.422356393174692 0 0 0
8957 0 1 75.78721264171155 10.0974848353439 9.422356393174702 0 0 0
8958 0 1 73.2887331040727 5.76999133448223 9.42235639317469 0 0 0
8959 0 1 74.12155961661898 4.327493500861669 11.777945491468374 0 0 0
8960 0 1 71.62308007898014 5.769991334482226 11.777945491468365 0 0 0
8961 0 1 74.121559616619 7.2124891681027865 11.777945491468373 0 0 0
8962 0 1 71.62308007898014 2.8849956672411157 11.777945491468364 0 0 0
17292 0 1 72.45590659152641 10.097484835343895 0 0 0 0
17291 0 1 72.45590659152641 7.212489168102781 -1.7763568394002505e-15 0 0 0
17290 0 1 86.61395730481318 5.769991334482224 4.711178196587344 0 0 0
17289 0 1 89.11243684245203 10.097484835343899 4.711178196587348 0 0 0
17288 0 1 86.61395730481318 8.654987001723342 4.711178196587348 0 0 0
17287 0 1 89.11243684245203 7.212489168102781 4.711178196587348 0 0 0
17286 0 1 88.27961032990575 8.654987001723338 2.3555890982936702 0 0 0
17285 0 1 88.27961032990575 11.53998266896446 2.3555890982936702 0 0 0
8971 0 1 84.11547776717435 15.867476169826128 4.711178196587349 0 0 0
8972 0 1 81.61699822953551 17.309974003446683 4.711178196587348 0 0 0
8973 0 1 84.11547776717435 18.75247183706724 4.711178196587351 0 0 0
8974 0 1 81.6169982295355 14.424978336205568 4.711178196587349 0 0 0
8975 0 1 82.44982474208179 12.98248050258501 7.066767294881027 0 0 0
8976 0 1 79.95134520444294 14.424978336205568 7.066767294881025 0 0 0
8977 0 1 82.4498247420818 15.867476169826125 7.066767294881025 0 0 0
8978 0 1 79.95134520444294 11.539982668964454 7.066767294881023 0 0 0
8979 0 1 80.78417171698923 10.097484835343897 9.422356393174697 0 0 0
8980 0 1 78.28569217935039 11.539982668964454 9.422356393174695 0 0 0
8981 0 1 80.78417171698923 12.98248050258501 9.422356393174699 0 0 0
8982 0 1 78.28569217935038 8.654987001723343 9.422356393174697 0 0 0
8983 0 1 79.11851869189667 7.2124891681027865 11.77794549146837 0 0 0
8984 0 1 76.62003915425782 8.654987001723343 11.777945491468369 0 0 0
8985 0 1 79.11851869189667 10.0974848353439 11.777945491468373 0 0 0
8986 0 1 76.62003915425782 5.76999133448223 11.777945491468367 0 0 0
17284 0 1 83.28265125462806 5.769991334482224 2.355589098293674 0 0 0
17283 0 1 85.78113079226692 10.097484835343899 2.3555890982936774 0 0 0
17282 0 1 83.28265125462806 8.654987001723342 2.3555890982936774 0 0 0
17281 0 1 85.78113079226691 7.212489168102781 2.3555890982936774 0 0 0
17280 0 1 84.94830427972062 8.654987001723338 0 0 0 0
17279 0 1 87.44678381735947 12.982480502585016 3.552713678800501e-15 0 0 0
8993 0 1 87.44678381735947 15.867476169826128 7.06676729488102 0 0 0
8994 0 1 84.94830427972063 17.309974003446683 7.066767294881018 0 0 0
8995 0 1 87.44678381735947 18.75247183706724 7.066767294881021 0 0 0
8996 0 1 84.94830427972063 14.424978336205568 7.06676729488102 0 0 0
8997 0 1 85.78113079226691 12.98248050258501 9.422356393174697 0 0 0
8998 0 1 83.28265125462806 14.424978336205568 9.422356393174695 0 0 0
8999 0 1 85.78113079226691 15.867476169826125 9.422356393174695 0 0 0
9000 0 1 83.28265125462806 11.539982668964454 9.422356393174693 0 0 0
9001 0 1 84.11547776717435 10.097484835343897 11.777945491468367 0 0 0
9002 0 1 81.61699822953551 11.539982668964454 11.777945491468365 0 0 0
9003 0 1 84.11547776717435 12.98248050258501 11.777945491468369 0 0 0
9004 0 1 81.6169982295355 8.654987001723343 11.777945491468367 0 0 0
9005 0 1 88.27961032990575 17.309974003446683 9.422356393174688 0 0 0
9006 0 1 88.27961032990574 14.424978336205568 9.42235639317469 0 0 0
9007 0 1 89.11243684245204 12.98248050258501 11.777945491468367 0 0 0
9008 0 1 86.61395730481318 14.424978336205568 11.777945491468365 0 0 0
9009 0 1 89.11243684245204 15.867476169826125 11.777945491468365 0 0 0
9010 0 1 86.61395730481318 11.539982668964454 11.777945491468364 0 0 0
9011 0 1 34.978713526943785 0 0 0 0 0
9012 0 1 37.477193064582636 1.442497833620557 0 0 0 0
9013 0 1 42.474152139860315 1.4424978336205552 1.7763568394002505e-15 0 0 0
9014 0 1 39.97567260222147 2.884995667241112 -1.7763568394002505e-15 0 0 0
9015 0 1 42.47415213986031 4.327493500861669 0 0 0 0
9016 0 1 39.97567260222147 0 0 0 0 0
9017 0 1 38.31001957712891 0 2.3555890982936702 0 0 0
9018 0 1 40.80849911476775 1.442497833620557 2.355589098293674 0 0 0
9019 0 1 47.471111215137995 4.327493500861671 -1.7763568394002505e-15 0 0 0
9020 0 1 44.97263167749915 5.769991334482228 -1.7763568394002505e-15 0 0 0
9021 0 1 47.471111215137995 7.212489168102785 -3.552713678800501e-15 0 0 0
9022 0 1 44.97263167749916 2.884995667241112 0 0 0 0
9023 0 1 45.805458190045435 1.4424978336205552 2.355589098293672 0 0 0
9024 0 1 43.30697865240659 2.884995667241112 2.355589098293672 0 0 0
9025 0 1 45.80545819004543 4.327493500861669 2.3555890982936702 0 0 0
9026 0 1 43.30697865240659 0 2.355589098293674 0 0 0
9027 0 1 41.64132562731403 0 4.711178196587344 0 0 0
9028 0 1 44.13980516495287 1.442497833620557 4.711178196587344 0 0 0
9029 0 1 52.46807029041569 7.212489168102781 1.7763568394002505e-15 0 0 0
9030 0 1 49.96959075277684 8.654987001723338 -1.7763568394002505e-15 0 0 0
9031 0 1 52.46807029041568 10.097484835343899 -1.7763568394002505e-15 0 0 0
9032 0 1 49.96959075277684 5.769991334482228 0 0 0 0
9033 0 1 50.80241726532313 4.327493500861671 2.3555890982936756 0 0 0
9034 0 1 48.30393772768428 5.769991334482228 2.355589098293672 0 0 0
9035 0 1 50.80241726532312 7.212489168102785 2.355589098293674 0 0 0
9036 0 1 48.30393772768428 2.884995667241112 2.355589098293674 0 0 0
9037 0 1 49.13676424023056 1.4424978336205552 4.711178196587349 0 0 0
9038 0 1 46.63828470259171 2.884995667241112 4.711178196587346 0 0 0
9039 0 1 49.13676424023056 4.327493500861669 4.711178196587348 0 0 0
9040 0 1 46.63828470259172 0 4.711178196587348 0 0 0
9041 0 1 44.97263167749915 0 7.066767294881018 0 0 0
9042 0 1 47.471111215138 1.442497833620557 7.066767294881021 0 0 0
9043 0 1 57.46502936569337 10.097484835343899 1.7763568394002505e-15 0 0 0
9044 0 1 54.966549828054525 11.539982668964456 -1.7763568394002505e-15 0 0 0
9045 0 1 57.46502936569337 12.982480502585013 1.7763568394002505e-15 0 0 0
9046 0 1 54.96654982805453 8.654987001723342 -1.7763568394002505e-15 0 0 0
9047 0 1 55.79937634060081 7.212489168102781 2.3555890982936756 0 0 0
9048 0 1 53.300896802961965 8.654987001723338 2.355589098293672 0 0 0
9049 0 1 55.7993763406008 10.097484835343899 2.355589098293672 0 0 0
9050 0 1 53.300896802961965 5.769991334482228 2.355589098293674 0 0 0
9051 0 1 54.13372331550825 4.327493500861671 4.711178196587349 0 0 0
9052 0 1 51.635243777869405 5.769991334482228 4.711178196587346 0 0 0
9053 0 1 54.13372331550824 7.212489168102785 4.711178196587348 0 0 0
9054 0 1 51.635243777869405 2.884995667241112 4.711178196587348 0 0 0
9055 0 1 52.46807029041568 1.4424978336205552 7.066767294881023 0 0 0
9056 0 1 49.96959075277684 2.884995667241112 7.06676729488102 0 0 0
9057 0 1 52.46807029041568 4.327493500861669 7.066767294881021 0 0 0
9058 0 1 49.969590752776845 0 7.06676729488102 0 0 0
9059 0 1 48.30393772768428 0 9.422356393174693 0 0 0
9060 0 1 50.80241726532312 1.442497833620557 9.422356393174693 0 0 0
9061 0 1 62.46198844097105 12.982480502585009 -1.7763568394002505e-15 0 0 0
9062 0 1 59.963508903332205 14.424978336205566 -1.7763568394002505e-15 0 0 0
9063 0 1 62.46198844097105 15.867476169826123 -1.7763568394002505e-15 0 0 0
9064 0 1 59.96350890333221 11.539982668964456 1.7763568394002505e-15 0 0 0