LAMMPS data file via write_data, version 29 Sep 2021, timestep = 0

31420 atoms
1 atom types

0 599.64 xlo xhi
0 28.85 ylo yhi
-1 85 zlo zhi

Masses

1 196.67

Pair Coeffs # lj/cut

1 3.36442 2.655

Atoms # molecular

1 0 1 74.95438612916526 0 77.73444024369122 0 0 0
2 0 1 64.96046797860988 0 77.73444024369122 0 0 0
3 0 1 67.45894751624874 1.4424978336205552 77.73444024369122 0 0 0
4 0 1 72.45590659152643 1.442497833620557 77.73444024369122 0 0 0
5 0 1 69.95742705388757 2.884995667241112 77.73444024369122 0 0 0
6 0 1 72.45590659152641 4.327493500861669 77.73444024369122 0 0 0
7 0 1 69.95742705388759 0 77.73444024369122 0 0 0
8 0 1 68.291774028795 0 80.0900293419849 0 0 0
9 0 1 70.79025356643386 1.4424978336205552 80.0900293419849 0 0 0
10 0 1 74.95438612916524 5.769991334482227 77.73444024369122 0 0 0
11 0 1 74.95438612916526 2.884995667241114 77.73444024369122 0 0 0
12 0 1 73.28873310407269 2.884995667241112 80.0900293419849 0 0 0
13 0 1 73.2887331040727 0 80.0900293419849 0 0 0
14 0 1 71.62308007898012 0 82.44561844027858 0 0 0
15 0 1 74.12155961661898 1.4424978336205552 82.44561844027858 0 0 0
16 0 1 54.96654982805453 0 77.73444024369124 0 0 0
17 0 1 57.46502936569336 1.4424978336205587 77.73444024369121 0 0 0
18 0 1 62.46198844097104 1.442497833620557 77.73444024369122 0 0 0
19 0 1 59.963508903332205 2.8849956672411157 77.73444024369124 0 0 0
20 0 1 62.46198844097105 4.327493500861671 77.73444024369121 0 0 0
21 0 1 59.96350890333221 0 77.73444024369124 0 0 0
22 0 1 58.29785587823965 0 80.09002934198492 0 0 0
23 0 1 60.79633541587848 1.4424978336205587 80.09002934198489 0 0 0
24 0 1 67.45894751624874 4.327493500861669 77.73444024369124 0 0 0
25 0 1 64.9604679786099 5.769991334482228 77.73444024369124 0 0 0
26 0 1 67.45894751624874 7.212489168102785 77.73444024369124 0 0 0
27 0 1 64.9604679786099 2.884995667241112 77.73444024369122 0 0 0
28 0 1 65.79329449115617 1.442497833620557 80.0900293419849 0 0 0
29 0 1 63.294814953517324 2.8849956672411157 80.09002934198489 0 0 0
30 0 1 65.79329449115619 4.327493500861671 80.09002934198489 0 0 0
31 0 1 63.29481495351733 0 80.0900293419849 0 0 0
32 0 1 61.62916192842477 0 82.44561844027857 0 0 0
33 0 1 64.12764146606362 1.4424978336205587 82.44561844027857 0 0 0
34 0 1 72.45590659152641 7.212489168102784 77.73444024369122 0 0 0
35 0 1 69.95742705388759 8.654987001723342 77.73444024369121 0 0 0
36 0 1 72.45590659152643 10.097484835343899 77.73444024369121 0 0 0
37 0 1 69.95742705388757 5.769991334482226 77.73444024369122 0 0 0
38 0 1 70.79025356643386 4.327493500861669 80.0900293419849 0 0 0
39 0 1 68.29177402879502 5.769991334482228 80.09002934198489 0 0 0
40 0 1 70.79025356643386 7.212489168102785 80.09002934198489 0 0 0
41 0 1 68.29177402879502 2.884995667241112 80.0900293419849 0 0 0
42 0 1 69.1246005413413 1.442497833620557 82.44561844027858 0 0 0
43 0 1 66.62612100370245 2.8849956672411157 82.44561844027857 0 0 0
44 0 1 69.12460054134131 4.327493500861671 82.44561844027857 0 0 0
45 0 1 66.62612100370245 0 82.44561844027858 0 0 0
46 0 1 74.95438612916526 11.539982668964456 77.73444024369124 0 0 0
47 0 1 74.95438612916526 8.65498700172334 77.73444024369122 0 0 0
48 0 1 73.28873310407269 8.654987001723342 80.09002934198489 0 0 0
49 0 1 73.28873310407269 5.769991334482226 80.0900293419849 0 0 0
50 0 1 74.12155961661898 4.327493500861669 82.44561844027858 0 0 0
51 0 1 71.62308007898014 5.769991334482228 82.44561844027857 0 0 0
52 0 1 74.12155961661898 7.212489168102785 82.44561844027857 0 0 0
53 0 1 71.62308007898014 2.884995667241112 82.44561844027858 0 0 0
54 0 1 44.97263167749915 0 77.73444024369122 0 0 0
55 0 1 47.471111215138 1.4424978336205534 77.73444024369122 0 0 0
56 0 1 52.46807029041568 1.442497833620557 77.73444024369122 0 0 0
57 0 1 49.969590752776845 2.8849956672411103 77.73444024369122 0 0 0
58 0 1 52.46807029041568 4.327493500861669 77.73444024369122 0 0 0
59 0 1 49.96959075277685 0 77.73444024369122 0 0 0
60 0 1 48.303937727684286 0 80.0900293419849 0 0 0
61 0 1 50.80241726532312 1.4424978336205534 80.09002934198489 0 0 0
62 0 1 57.46502936569336 4.327493500861673 77.73444024369121 0 0 0
63 0 1 54.966549828054525 5.769991334482226 77.73444024369122 0 0 0
64 0 1 57.46502936569337 7.212489168102781 77.73444024369122 0 0 0
65 0 1 54.96654982805453 2.8849956672411157 77.73444024369122 0 0 0
66 0 1 55.79937634060081 1.442497833620557 80.09002934198489 0 0 0
67 0 1 53.30089680296197 2.8849956672411103 80.0900293419849 0 0 0
68 0 1 55.7993763406008 4.327493500861669 80.09002934198489 0 0 0
69 0 1 53.30089680296197 0 80.09002934198489 0 0 0
70 0 1 51.635243777869405 0 82.44561844027857 0 0 0
71 0 1 54.133723315508234 1.4424978336205534 82.44561844027857 0 0 0
72 0 1 62.46198844097105 7.212489168102785 77.73444024369122 0 0 0
73 0 1 59.96350890333221 8.654987001723338 77.73444024369122 0 0 0
74 0 1 62.46198844097104 10.097484835343895 77.73444024369122 0 0 0
75 0 1 59.96350890333222 5.769991334482228 77.73444024369122 0 0 0
76 0 1 60.79633541587848 4.327493500861673 80.09002934198489 0 0 0
77 0 1 58.297855878239645 5.769991334482226 80.0900293419849 0 0 0
78 0 1 60.79633541587849 7.212489168102781 80.09002934198489 0 0 0
79 0 1 58.29785587823965 2.8849956672411157 80.0900293419849 0 0 0
80 0 1 59.13068239078593 1.442497833620557 82.44561844027857 0 0 0
81 0 1 56.63220285314709 2.8849956672411103 82.44561844027858 0 0 0
82 0 1 59.13068239078592 4.327493500861669 82.44561844027857 0 0 0
83 0 1 56.632202853147085 0 82.44561844027857 0 0 0
84 0 1 67.45894751624874 10.097484835343899 77.73444024369122 0 0 0
85 0 1 64.96046797860988 11.539982668964452 77.73444024369122 0 0 0
86 0 1 67.45894751624874 12.982480502585009 77.73444024369122 0 0 0
87 0 1 64.96046797860988 8.654987001723342 77.73444024369122 0 0 0
88 0 1 65.79329449115617 7.212489168102785 80.0900293419849 0 0 0
89 0 1 63.29481495351733 8.654987001723338 80.0900293419849 0 0 0
90 0 1 65.79329449115617 10.097484835343895 80.0900293419849 0 0 0
91 0 1 63.29481495351734 5.769991334482228 80.09002934198489 0 0 0
92 0 1 64.12764146606361 4.327493500861673 82.44561844027857 0 0 0
93 0 1 61.629161928424764 5.769991334482226 82.44561844027857 0 0 0
94 0 1 64.12764146606362 7.212489168102781 82.44561844027857 0 0 0
95 0 1 61.62916192842477 2.8849956672411157 82.44561844027857 0 0 0
96 0 1 72.45590659152641 12.982480502585013 77.73444024369122 0 0 0
97 0 1 69.95742705388757 14.424978336205566 77.73444024369122 0 0 0
98 0 1 72.45590659152641 15.867476169826123 77.73444024369122 0 0 0
99 0 1 69.95742705388757 11.539982668964456 77.73444024369122 0 0 0
100 0 1 70.79025356643385 10.097484835343899 80.09002934198489 0 0 0
101 0 1 68.29177402879502 11.539982668964452 80.09002934198489 0 0 0
102 0 1 70.79025356643386 12.982480502585009 80.09002934198489 0 0 0
103 0 1 68.291774028795 8.654987001723342 80.09002934198489 0 0 0
104 0 1 69.1246005413413 7.212489168102785 82.44561844027857 0 0 0
105 0 1 66.62612100370245 8.654987001723338 82.44561844027857 0 0 0
106 0 1 69.1246005413413 10.097484835343895 82.44561844027857 0 0 0
107 0 1 66.62612100370245 5.769991334482228 82.44561844027857 0 0 0
108 0 1 74.95438612916526 17.30997400344668 77.73444024369122 0 0 0
109 0 1 74.95438612916524 14.42497833620557 77.73444024369122 0 0 0
110 0 1 73.28873310407269 14.424978336205566 80.0900293419849 0 0 0
111 0 1 73.28873310407269 11.539982668964456 80.09002934198489 0 0 0
112 0 1 74.12155961661898 10.097484835343899 82.44561844027857 0 0 0
113 0 1 71.62308007898012 11.539982668964452 82.44561844027857 0 0 0
114 0 1 74.12155961661898 12.982480502585009 82.44561844027857 0 0 0
115 0 1 71.62308007898012 8.654987001723342 82.44561844027857 0 0 0
116 0 1 34.978713526943785 0 77.73444024369122 0 0 0
117 0 1 37.47719306458263 1.442497833620557 77.73444024369122 0 0 0
118 0 1 42.47415213986032 1.4424978336205605 77.73444024369122 0 0 0
119 0 1 39.975672602221465 2.8849956672411174 77.73444024369122 0 0 0
120 0 1 42.47415213986032 4.327493500861671 77.73444024369122 0 0 0
121 0 1 39.975672602221465 0 77.73444024369122 0 0 0
122 0 1 38.310019577128905 0 80.09002934198489 0 0 0
123 0 1 40.80849911476776 1.442497833620557 80.0900293419849 0 0 0
124 0 1 47.471111215137995 4.327493500861671 77.73444024369122 0 0 0
125 0 1 44.97263167749915 5.769991334482228 77.73444024369122 0 0 0
126 0 1 47.471111215138 7.2124891681027865 77.73444024369122 0 0 0
127 0 1 44.97263167749915 2.884995667241114 77.73444024369122 0 0 0
128 0 1 45.80545819004544 1.4424978336205605 80.0900293419849 0 0 0
129 0 1 43.30697865240659 2.8849956672411174 80.0900293419849 0 0 0
130 0 1 45.80545819004544 4.327493500861671 80.0900293419849 0 0 0
131 0 1 43.3069786524066 0 80.0900293419849 0 0 0
132 0 1 41.64132562731403 0 82.44561844027858 0 0 0
133 0 1 44.13980516495288 1.442497833620557 82.44561844027858 0 0 0
134 0 1 52.46807029041568 7.2124891681027865 77.73444024369122 0 0 0
135 0 1 49.96959075277685 8.654987001723343 77.73444024369122 0 0 0
136 0 1 52.46807029041569 10.097484835343899 77.73444024369122 0 0 0
137 0 1 49.96959075277685 5.76999133448223 77.73444024369122 0 0 0
138 0 1 50.802417265323115 4.327493500861671 80.0900293419849 0 0 0
139 0 1 48.303937727684286 5.769991334482228 80.0900293419849 0 0 0
140 0 1 50.80241726532312 7.2124891681027865 80.09002934198489 0 0 0
141 0 1 48.303937727684286 2.884995667241114 80.0900293419849 0 0 0
142 0 1 49.13676424023056 1.4424978336205605 82.44561844027857 0 0 0
143 0 1 46.638284702591726 2.8849956672411174 82.44561844027858 0 0 0
144 0 1 49.13676424023056 4.327493500861671 82.44561844027857 0 0 0
145 0 1 46.63828470259173 0 82.44561844027858 0 0 0
146 0 1 57.46502936569337 10.097484835343899 77.73444024369122 0 0 0
147 0 1 54.96654982805453 11.539982668964456 77.73444024369122 0 0 0
148 0 1 57.46502936569336 12.982480502585013 77.73444024369121 0 0 0
149 0 1 54.96654982805454 8.654987001723342 77.73444024369122 0 0 0
150 0 1 55.7993763406008 7.2124891681027865 80.09002934198489 0 0 0
151 0 1 53.300896802961965 8.654987001723343 80.0900293419849 0 0 0
152 0 1 55.79937634060081 10.097484835343899 80.09002934198489 0 0 0
153 0 1 53.30089680296197 5.76999133448223 80.0900293419849 0 0 0
154 0 1 54.13372331550825 4.327493500861671 82.44561844027857 0 0 0
155 0 1 51.63524377786941 5.769991334482228 82.44561844027858 0 0 0
156 0 1 54.13372331550824 7.2124891681027865 82.44561844027857 0 0 0
157 0 1 51.635243777869405 2.884995667241114 82.44561844027857 0 0 0
158 0 1 62.461988440971055 12.982480502585013 77.73444024369122 0 0 0
159 0 1 59.96350890333222 14.42497833620557 77.73444024369124 0 0 0
160 0 1 62.46198844097105 15.867476169826126 77.73444024369122 0 0 0
161 0 1 59.96350890333221 11.539982668964456 77.73444024369122 0 0 0
162 0 1 60.79633541587849 10.097484835343899 80.0900293419849 0 0 0
163 0 1 58.29785587823965 11.539982668964456 80.0900293419849 0 0 0
164 0 1 60.79633541587848 12.982480502585013 80.09002934198489 0 0 0
165 0 1 58.29785587823966 8.654987001723342 80.0900293419849 0 0 0
166 0 1 59.13068239078592 7.2124891681027865 82.44561844027857 0 0 0
167 0 1 56.632202853147085 8.654987001723343 82.44561844027858 0 0 0
168 0 1 59.13068239078593 10.097484835343899 82.44561844027857 0 0 0
169 0 1 56.63220285314709 5.76999133448223 82.44561844027858 0 0 0
170 0 1 67.45894751624874 15.867476169826126 77.73444024369122 0 0 0
171 0 1 64.96046797860988 17.309974003446683 77.73444024369122 0 0 0
172 0 1 67.45894751624873 18.75247183706724 77.73444024369122 0 0 0
173 0 1 64.9604679786099 14.42497833620557 77.73444024369122 0 0 0
174 0 1 65.79329449115619 12.982480502585013 80.0900293419849 0 0 0
175 0 1 63.294814953517324 14.42497833620557 80.0900293419849 0 0 0
176 0 1 65.79329449115617 15.867476169826126 80.0900293419849 0 0 0
177 0 1 63.29481495351733 11.539982668964456 80.0900293419849 0 0 0
178 0 1 64.12764146606362 10.097484835343899 82.44561844027858 0 0 0
179 0 1 61.62916192842477 11.539982668964456 82.44561844027858 0 0 0
180 0 1 64.12764146606361 12.982480502585013 82.44561844027858 0 0 0
181 0 1 61.62916192842478 8.654987001723342 82.44561844027857 0 0 0
182 0 1 72.45590659152643 18.75247183706724 77.73444024369122 0 0 0
183 0 1 69.95742705388757 20.194969670687797 77.73444024369122 0 0 0
184 0 1 72.45590659152641 21.637467504308354 77.73444024369122 0 0 0
185 0 1 69.95742705388757 17.309974003446683 77.73444024369122 0 0 0
186 0 1 70.79025356643386 15.867476169826126 80.0900293419849 0 0 0
187 0 1 68.291774028795 17.309974003446683 80.09002934198489 0 0 0
188 0 1 70.79025356643385 18.75247183706724 80.09002934198489 0 0 0
189 0 1 68.29177402879502 14.42497833620557 80.0900293419849 0 0 0
190 0 1 69.1246005413413 12.982480502585013 82.44561844027857 0 0 0
191 0 1 66.62612100370245 14.42497833620557 82.44561844027857 0 0 0
192 0 1 69.1246005413413 15.867476169826126 82.44561844027857 0 0 0
193 0 1 66.62612100370245 11.539982668964456 82.44561844027857 0 0 0
194 0 1 74.95438612916524 23.07996533792891 77.73444024369122 0 0 0
195 0 1 74.95438612916526 20.194969670687797 77.73444024369122 0 0 0
196 0 1 73.28873310407269 20.194969670687797 80.0900293419849 0 0 0
197 0 1 73.28873310407269 17.309974003446683 80.0900293419849 0 0 0
198 0 1 74.12155961661898 15.867476169826126 82.44561844027858 0 0 0
199 0 1 71.62308007898012 17.309974003446683 82.44561844027858 0 0 0
200 0 1 74.12155961661897 18.75247183706724 82.44561844027858 0 0 0
201 0 1 71.62308007898014 14.42497833620557 82.44561844027857 0 0 0
202 0 1 24.984795376388426 0 77.73444024369122 0 0 0
203 0 1 27.48327491402727 1.4424978336205534 77.73444024369124 0 0 0
204 0 1 32.48023398930495 1.442497833620557 77.73444024369122 0 0 0
205 0 1 29.981754451666106 2.8849956672411103 77.73444024369122 0 0 0
206 0 1 32.48023398930495 4.327493500861667 77.73444024369124 0 0 0
207 0 1 29.9817544516661 0 77.73444024369122 0 0 0
208 0 1 28.316101426573546 0 80.0900293419849 0 0 0
209 0 1 30.81458096421239 1.4424978336205534 80.0900293419849 0 0 0
210 0 1 37.47719306458263 4.327493500861674 77.73444024369122 0 0 0
211 0 1 34.978713526943785 5.769991334482228 77.73444024369122 0 0 0
212 0 1 37.477193064582636 7.212489168102781 77.73444024369122 0 0 0
213 0 1 34.97871352694378 2.884995667241114 77.73444024369122 0 0 0
214 0 1 35.81154003949007 1.442497833620557 80.0900293419849 0 0 0
215 0 1 33.313060501851226 2.8849956672411103 80.0900293419849 0 0 0
216 0 1 35.81154003949007 4.327493500861667 80.0900293419849 0 0 0
217 0 1 33.31306050185122 0 80.0900293419849 0 0 0
218 0 1 31.647407476758666 0 82.44561844027858 0 0 0
219 0 1 34.14588701439751 1.4424978336205534 82.44561844027858 0 0 0
220 0 1 42.474152139860315 7.212489168102785 77.73444024369122 0 0 0
221 0 1 39.975672602221465 8.654987001723338 77.73444024369122 0 0 0
222 0 1 42.47415213986032 10.097484835343897 77.73444024369122 0 0 0
223 0 1 39.975672602221465 5.769991334482228 77.73444024369122 0 0 0
224 0 1 40.808499114767756 4.327493500861674 80.0900293419849 0 0 0
225 0 1 38.310019577128905 5.769991334482228 80.0900293419849 0 0 0
226 0 1 40.80849911476776 7.212489168102781 80.0900293419849 0 0 0
227 0 1 38.3100195771289 2.884995667241114 80.0900293419849 0 0 0
228 0 1 39.142846089675196 1.442497833620557 82.44561844027857 0 0 0
229 0 1 36.644366552036345 2.8849956672411103 82.44561844027857 0 0 0
230 0 1 39.1428460896752 4.327493500861667 82.44561844027858 0 0 0
231 0 1 36.64436655203634 0 82.44561844027857 0 0 0
232 0 1 47.471111215138 10.0974848353439 77.73444024369122 0 0 0
233 0 1 44.97263167749916 11.539982668964454 77.73444024369122 0 0 0
234 0 1 47.471111215138 12.982480502585009 77.73444024369122 0 0 0
235 0 1 44.97263167749915 8.654987001723343 77.73444024369122 0 0 0
236 0 1 45.805458190045435 7.212489168102785 80.0900293419849 0 0 0
237 0 1 43.30697865240659 8.654987001723338 80.0900293419849 0 0 0
238 0 1 45.80545819004544 10.097484835343897 80.0900293419849 0 0 0
239 0 1 43.30697865240659 5.769991334482228 80.0900293419849 0 0 0
240 0 1 44.139805164952875 4.327493500861674 82.44561844027858 0 0 0
241 0 1 41.64132562731403 5.769991334482228 82.44561844027858 0 0 0
242 0 1 44.13980516495288 7.212489168102781 82.44561844027858 0 0 0
243 0 1 41.64132562731403 2.884995667241114 82.44561844027858 0 0 0
244 0 1 52.46807029041568 12.982480502585013 77.73444024369122 0 0 0
245 0 1 49.96959075277685 14.424978336205566 77.73444024369122 0 0 0
246 0 1 52.46807029041568 15.867476169826123 77.73444024369122 0 0 0
247 0 1 49.969590752776845 11.539982668964456 77.73444024369122 0 0 0
248 0 1 50.802417265323115 10.0974848353439 80.0900293419849 0 0 0
249 0 1 48.30393772768429 11.539982668964454 80.0900293419849 0 0 0
250 0 1 50.80241726532313 12.982480502585009 80.0900293419849 0 0 0
251 0 1 48.303937727684286 8.654987001723343 80.0900293419849 0 0 0
252 0 1 49.136764240230555 7.212489168102785 82.44561844027857 0 0 0
253 0 1 46.638284702591726 8.654987001723338 82.44561844027858 0 0 0
254 0 1 49.13676424023056 10.097484835343897 82.44561844027857 0 0 0
255 0 1 46.638284702591726 5.769991334482228 82.44561844027858 0 0 0
256 0 1 57.465029365693354 15.867476169826126 77.73444024369122 0 0 0
257 0 1 54.966549828054525 17.30997400344668 77.73444024369122 0 0 0
258 0 1 57.46502936569337 18.752471837067237 77.73444024369122 0 0 0
259 0 1 54.966549828054525 14.42497833620557 77.73444024369122 0 0 0
260 0 1 55.7993763406008 12.982480502585013 80.09002934198489 0 0 0
261 0 1 53.30089680296197 14.424978336205566 80.0900293419849 0 0 0
262 0 1 55.7993763406008 15.867476169826123 80.09002934198489 0 0 0
263 0 1 53.30089680296197 11.539982668964456 80.0900293419849 0 0 0
264 0 1 54.133723315508234 10.0974848353439 82.44561844027857 0 0 0
265 0 1 51.635243777869405 11.539982668964454 82.44561844027858 0 0 0
266 0 1 54.13372331550825 12.982480502585009 82.44561844027857 0 0 0
267 0 1 51.635243777869405 8.654987001723343 82.44561844027857 0 0 0
268 0 1 62.46198844097104 18.75247183706724 77.73444024369122 0 0 0
269 0 1 59.96350890333221 20.194969670687794 77.73444024369122 0 0 0
270 0 1 62.46198844097104 21.63746750430835 77.73444024369122 0 0 0
271 0 1 59.96350890333221 17.309974003446683 77.73444024369122 0 0 0
272 0 1 60.79633541587849 15.867476169826126 80.0900293419849 0 0 0
273 0 1 58.29785587823966 17.30997400344668 80.0900293419849 0 0 0
274 0 1 60.79633541587849 18.752471837067237 80.0900293419849 0 0 0
275 0 1 58.297855878239645 14.42497833620557 80.0900293419849 0 0 0
276 0 1 59.13068239078592 12.982480502585013 82.44561844027857 0 0 0
277 0 1 56.63220285314709 14.424978336205566 82.44561844027858 0 0 0
278 0 1 59.13068239078592 15.867476169826123 82.44561844027857 0 0 0
279 0 1 56.63220285314709 11.539982668964456 82.44561844027858 0 0 0
280 0 1 67.45894751624874 21.637467504308354 77.73444024369122 0 0 0
281 0 1 64.9604679786099 23.079965337928908 77.73444024369122 0 0 0
282 0 1 67.45894751624874 24.522463171549465 77.73444024369122 0 0 0
283 0 1 64.96046797860988 20.194969670687797 77.73444024369122 0 0 0
284 0 1 65.79329449115617 18.75247183706724 80.0900293419849 0 0 0
285 0 1 63.29481495351733 20.194969670687794 80.0900293419849 0 0 0
286 0 1 65.79329449115617 21.63746750430835 80.0900293419849 0 0 0
287 0 1 63.29481495351733 17.309974003446683 80.0900293419849 0 0 0
288 0 1 64.12764146606362 15.867476169826126 82.44561844027858 0 0 0
289 0 1 61.629161928424764 17.30997400344668 82.44561844027858 0 0 0
290 0 1 64.12764146606362 18.752471837067237 82.44561844027858 0 0 0
291 0 1 61.629161928424764 14.42497833620557 82.44561844027857 0 0 0
292 0 1 72.45590659152641 24.522463171549468 77.73444024369122 0 0 0
293 0 1 69.95742705388757 25.96496100517002 77.73444024369122 0 0 0
294 0 1 72.45590659152643 27.40745883879058 77.73444024369122 0 0 0
295 0 1 69.95742705388757 23.07996533792891 77.73444024369122 0 0 0
296 0 1 70.79025356643386 21.637467504308354 80.0900293419849 0 0 0
297 0 1 68.29177402879502 23.079965337928908 80.0900293419849 0 0 0
298 0 1 70.79025356643386 24.522463171549465 80.0900293419849 0 0 0
299 0 1 68.291774028795 20.194969670687797 80.09002934198489 0 0 0
300 0 1 69.1246005413413 18.75247183706724 82.44561844027857 0 0 0
301 0 1 66.62612100370245 20.194969670687794 82.44561844027857 0 0 0
302 0 1 69.1246005413413 21.63746750430835 82.44561844027857 0 0 0
303 0 1 66.62612100370245 17.309974003446683 82.44561844027857 0 0 0
304 0 1 74.95438612916526 25.964961005170025 77.73444024369122 0 0 0
305 0 1 73.28873310407269 25.96496100517002 80.0900293419849 0 0 0
306 0 1 73.28873310407269 23.07996533792891 80.0900293419849 0 0 0
307 0 1 74.12155961661898 21.637467504308354 82.44561844027858 0 0 0
308 0 1 71.62308007898014 23.079965337928908 82.44561844027858 0 0 0
309 0 1 74.12155961661898 24.522463171549465 82.44561844027858 0 0 0
310 0 1 71.62308007898012 20.194969670687797 82.44561844027857 0 0 0
311 0 1 14.990877225833058 0 77.73444024369122 0 0 0
312 0 1 17.489356763471896 1.442497833620557 77.73444024369122 0 0 0
313 0 1 22.486315838749583 1.442497833620557 77.73444024369124 0 0 0
314 0 1 19.987836301110747 2.884995667241114 77.73444024369122 0 0 0
315 0 1 22.486315838749583 4.327493500861667 77.73444024369122 0 0 0
316 0 1 19.98783630111074 0 77.73444024369122 0 0 0
317 0 1 18.322183276018187 0 80.09002934198489 0 0 0
318 0 1 20.820662813657023 1.442497833620557 80.0900293419849 0 0 0
319 0 1 27.48327491402727 4.327493500861667 77.73444024369124 0 0 0
320 0 1 24.984795376388426 5.769991334482224 77.73444024369122 0 0 0
321 0 1 27.48327491402727 7.212489168102781 77.73444024369122 0 0 0
322 0 1 24.98479537638842 2.8849956672411103 77.73444024369121 0 0 0
323 0 1 25.81762188893471 1.442497833620557 80.09002934198492 0 0 0
324 0 1 23.319142351295866 2.884995667241114 80.09002934198489 0 0 0
325 0 1 25.81762188893471 4.327493500861667 80.0900293419849 0 0 0
326 0 1 23.31914235129586 0 80.09002934198489 0 0 0
327 0 1 21.653489326203307 0 82.44561844027857 0 0 0
328 0 1 24.15196886384215 1.442497833620557 82.44561844027858 0 0 0
329 0 1 32.48023398930495 7.212489168102785 77.73444024369124 0 0 0
330 0 1 29.981754451666106 8.654987001723342 77.73444024369122 0 0 0
331 0 1 32.480233989304956 10.097484835343895 77.73444024369122 0 0 0
332 0 1 29.9817544516661 5.769991334482224 77.73444024369124 0 0 0
333 0 1 30.81458096421239 4.327493500861667 80.0900293419849 0 0 0
334 0 1 28.316101426573546 5.769991334482224 80.0900293419849 0 0 0
335 0 1 30.81458096421239 7.212489168102781 80.0900293419849 0 0 0
336 0 1 28.31610142657354 2.8849956672411103 80.09002934198489 0 0 0
337 0 1 29.14892793911983 1.442497833620557 82.44561844027857 0 0 0
338 0 1 26.650448401480986 2.884995667241114 82.44561844027857 0 0 0
339 0 1 29.14892793911983 4.327493500861667 82.44561844027857 0 0 0
340 0 1 26.65044840148098 0 82.44561844027857 0 0 0
341 0 1 37.47719306458263 10.097484835343895 77.73444024369122 0 0 0
342 0 1 34.978713526943785 11.539982668964452 77.73444024369122 0 0 0
343 0 1 37.477193064582636 12.98248050258501 77.73444024369122 0 0 0
344 0 1 34.978713526943785 8.654987001723338 77.73444024369122 0 0 0
345 0 1 35.81154003949007 7.212489168102785 80.09002934198489 0 0 0
346 0 1 33.313060501851226 8.654987001723342 80.09002934198489 0 0 0
347 0 1 35.811540039490076 10.097484835343895 80.0900293419849 0 0 0
348 0 1 33.31306050185122 5.769991334482224 80.09002934198489 0 0 0
349 0 1 34.14588701439751 4.327493500861667 82.44561844027857 0 0 0
350 0 1 31.647407476758666 5.769991334482224 82.44561844027857 0 0 0
351 0 1 34.14588701439751 7.212489168102781 82.44561844027857 0 0 0
352 0 1 31.64740747675866 2.8849956672411103 82.44561844027857 0 0 0
353 0 1 42.47415213986032 12.98248050258501 77.73444024369121 0 0 0
354 0 1 39.97567260222147 14.424978336205568 77.73444024369121 0 0 0
355 0 1 42.47415213986032 15.867476169826123 77.73444024369122 0 0 0
356 0 1 39.975672602221465 11.539982668964454 77.73444024369121 0 0 0
357 0 1 40.808499114767756 10.097484835343895 80.09002934198489 0 0 0
358 0 1 38.310019577128905 11.539982668964452 80.09002934198489 0 0 0
359 0 1 40.80849911476776 12.98248050258501 80.09002934198489 0 0 0
360 0 1 38.310019577128905 8.654987001723338 80.09002934198489 0 0 0
361 0 1 39.142846089675196 7.212489168102785 82.44561844027857 0 0 0
362 0 1 36.644366552036345 8.654987001723342 82.44561844027857 0 0 0
363 0 1 39.1428460896752 10.097484835343895 82.44561844027857 0 0 0
364 0 1 36.64436655203634 5.769991334482224 82.44561844027857 0 0 0
365 0 1 47.471111215138 15.867476169826123 77.73444024369122 0 0 0
366 0 1 44.97263167749916 17.30997400344668 77.73444024369122 0 0 0
367 0 1 47.471111215138 18.752471837067237 77.73444024369122 0 0 0
368 0 1 44.97263167749915 14.424978336205566 77.73444024369122 0 0 0
369 0 1 45.80545819004544 12.98248050258501 80.09002934198489 0 0 0
370 0 1 43.3069786524066 14.424978336205568 80.09002934198489 0 0 0
371 0 1 45.80545819004544 15.867476169826123 80.0900293419849 0 0 0
372 0 1 43.30697865240659 11.539982668964454 80.09002934198489 0 0 0
373 0 1 44.139805164952875 10.097484835343895 82.44561844027857 0 0 0
374 0 1 41.64132562731403 11.539982668964452 82.44561844027857 0 0 0
375 0 1 44.13980516495288 12.98248050258501 82.44561844027857 0 0 0
376 0 1 41.64132562731403 8.654987001723338 82.44561844027857 0 0 0
377 0 1 52.46807029041569 18.752471837067237 77.73444024369122 0 0 0
378 0 1 49.96959075277686 20.194969670687794 77.73444024369122 0 0 0
379 0 1 52.46807029041569 21.63746750430835 77.73444024369122 0 0 0
380 0 1 49.969590752776845 17.30997400344668 77.73444024369122 0 0 0
381 0 1 50.80241726532312 15.867476169826123 80.09002934198489 0 0 0
382 0 1 48.30393772768429 17.30997400344668 80.0900293419849 0 0 0
383 0 1 50.80241726532312 18.752471837067237 80.09002934198489 0 0 0
384 0 1 48.303937727684286 14.424978336205566 80.0900293419849 0 0 0
385 0 1 49.136764240230555 12.98248050258501 82.44561844027857 0 0 0
386 0 1 46.63828470259173 14.424978336205568 82.44561844027857 0 0 0
387 0 1 49.13676424023057 15.867476169826123 82.44561844027857 0 0 0
388 0 1 46.638284702591726 11.539982668964454 82.44561844027857 0 0 0
389 0 1 57.46502936569336 21.63746750430835 77.73444024369121 0 0 0
390 0 1 54.96654982805453 23.079965337928908 77.73444024369122 0 0 0
391 0 1 57.46502936569336 24.522463171549465 77.73444024369121 0 0 0
392 0 1 54.96654982805453 20.194969670687794 77.73444024369122 0 0 0
393 0 1 55.799376340600794 18.752471837067237 80.09002934198489 0 0 0
394 0 1 53.300896802961965 20.194969670687794 80.0900293419849 0 0 0
395 0 1 55.79937634060081 21.63746750430835 80.09002934198489 0 0 0
396 0 1 53.300896802961965 17.30997400344668 80.09002934198489 0 0 0
397 0 1 54.13372331550824 15.867476169826123 82.44561844027857 0 0 0
398 0 1 51.63524377786941 17.30997400344668 82.44561844027857 0 0 0
399 0 1 54.13372331550824 18.752471837067237 82.44561844027857 0 0 0
400 0 1 51.63524377786941 14.424978336205566 82.44561844027857 0 0 0
401 0 1 62.46198844097105 24.522463171549465 77.73444024369122 0 0 0
402 0 1 59.96350890333222 25.96496100517002 77.73444024369122 0 0 0
403 0 1 62.46198844097105 27.40745883879058 77.73444024369122 0 0 0
404 0 1 59.963508903332205 23.079965337928908 77.73444024369122 0 0 0
405 0 1 60.79633541587848 21.63746750430835 80.09002934198489 0 0 0
406 0 1 58.29785587823965 23.079965337928908 80.0900293419849 0 0 0
407 0 1 60.79633541587848 24.522463171549465 80.09002934198489 0 0 0
408 0 1 58.29785587823965 20.194969670687794 80.0900293419849 0 0 0
409 0 1 59.13068239078593 18.752471837067237 82.44561844027857 0 0 0
410 0 1 56.6322028531471 20.194969670687794 82.44561844027858 0 0 0
411 0 1 59.13068239078593 21.63746750430835 82.44561844027857 0 0 0
412 0 1 56.632202853147085 17.30997400344668 82.44561844027857 0 0 0
413 0 1 67.45894751624874 27.40745883879058 77.73444024369122 0 0 0
414 0 1 64.9604679786099 25.96496100517002 77.73444024369122 0 0 0
415 0 1 65.79329449115619 24.522463171549465 80.0900293419849 0 0 0
416 0 1 63.29481495351734 25.96496100517002 80.0900293419849 0 0 0
417 0 1 65.79329449115617 27.40745883879058 80.0900293419849 0 0 0
418 0 1 63.294814953517324 23.079965337928908 80.09002934198489 0 0 0
419 0 1 64.12764146606362 21.63746750430835 82.44561844027857 0 0 0
420 0 1 61.62916192842477 23.079965337928908 82.44561844027857 0 0 0
421 0 1 64.12764146606361 24.522463171549465 82.44561844027857 0 0 0
422 0 1 61.62916192842477 20.194969670687794 82.44561844027857 0 0 0
423 0 1 70.79025356643386 27.40745883879058 80.09002934198489 0 0 0
424 0 1 68.29177402879502 25.96496100517002 80.09002934198489 0 0 0
425 0 1 69.12460054134131 24.522463171549465 82.44561844027857 0 0 0
426 0 1 66.62612100370245 25.96496100517002 82.44561844027857 0 0 0
427 0 1 69.1246005413413 27.40745883879058 82.44561844027857 0 0 0
428 0 1 66.62612100370245 23.079965337928908 82.44561844027857 0 0 0
429 0 1 74.12155961661898 27.40745883879058 82.44561844027857 0 0 0
430 0 1 71.62308007898014 25.96496100517002 82.44561844027857 0 0 0
431 0 1 4.99695907527768 0 77.73444024369122 0 0 0
432 0 1 7.495438612916523 1.4424978336205605 77.73444024369122 0 0 0
433 0 1 12.49239768819421 1.442497833620557 77.73444024369122 0 0 0
434 0 1 9.993918150555366 2.8849956672411174 77.73444024369122 0 0 0
435 0 1 12.492397688194202 4.327493500861674 77.73444024369122 0 0 0
436 0 1 9.993918150555366 0 77.73444024369122 0 0 0
437 0 1 8.3282651254628 0 80.0900293419849 0 0 0
438 0 1 10.826744663101643 1.4424978336205605 80.0900293419849 0 0 0
439 0 1 17.489356763471896 4.327493500861671 77.73444024369122 0 0 0
440 0 1 14.990877225833053 5.769991334482231 77.73444024369122 0 0 0
441 0 1 17.48935676347189 7.212489168102785 77.73444024369122 0 0 0
442 0 1 14.990877225833053 2.884995667241114 77.73444024369122 0 0 0
443 0 1 15.823703738379336 1.442497833620557 80.09002934198489 0 0 0
444 0 1 13.325224200740493 2.8849956672411174 80.0900293419849 0 0 0
445 0 1 15.82370373837933 4.327493500861674 80.0900293419849 0 0 0
446 0 1 13.325224200740493 0 80.0900293419849 0 0 0
447 0 1 11.659571175647926 0 82.44561844027858 0 0 0